# vtk DataFile Version 5.1
vtk output
ASCII
DATASET UNSTRUCTURED_GRID
POINTS 12 double
0 0 0 1 0 0 1 1 0 
0 1 0 0.5 0 0 1 0.5 0 
0.5 1 0 0 0.5 0 0.25 0.25 0 
0.625 0.375 0 0.71875 0.71875 0 0.345703 0.654297 0 

METADATA
INFORMATION 2
NAME L2_NORM_RANGE LOCATION vtkDataArray
DATA 2 0 1.41421 
NAME L2_NORM_FINITE_RANGE LOCATION vtkDataArray
DATA 2 0 1.41421 

CELLS 15 42
OFFSETS vtktypeint64
0 3 6 9 12 15 18 21 24 
27 30 33 36 39 42 
CONNECTIVITY vtktypeint64
1 9 4 5 9 1 3 11 6 
7 11 3 2 10 5 6 10 2 
4 8 0 0 8 7 9 11 8 
8 11 7 4 9 8 10 11 9 
6 11 10 5 10 9 
CELL_TYPES 14
5
5
5
5
5
5
5
5
5
5
5
5
5
5

POINT_DATA 12
SCALARS f double
LOOKUP_TABLE default
1 0.367879 0.198766 0.540302 0.606531 0.322845 0.32771 0.877583 0.75459 
0.498065 0.366802 0.561561 
METADATA
INFORMATION 0

