# vtk DataFile Version 5.1
vtk output
ASCII
DATASET UNSTRUCTURED_GRID
POINTS 1214 double
0 0 0 -1.04083e-17 0.06 0 0 0 0.2 
-1.04083e-17 0.06 0.2 0.06 0 0.2 0.06 0 0 
0.06 0.06 0.2 0.06 0.06 0 -1.04083e-17 0.06 0.190909 
-1.04083e-17 0.06 0.181818 -1.04083e-17 0.06 0.172727 -1.04083e-17 0.06 0.163636 
-1.04083e-17 0.06 0.154545 -1.04083e-17 0.06 0.145455 -1.04083e-17 0.06 0.136364 
-1.04083e-17 0.06 0.127273 -1.04083e-17 0.06 0.118182 -1.04083e-17 0.06 0.109091 
-1.04083e-17 0.06 0.1 -1.04083e-17 0.06 0.0909091 -1.04083e-17 0.06 0.0818182 
-1.04083e-17 0.06 0.0727273 -1.04083e-17 0.06 0.0636364 -1.04083e-17 0.06 0.0545455 
-1.04083e-17 0.06 0.0454545 -1.04083e-17 0.06 0.0363636 -1.04083e-17 0.06 0.0272727 
-1.04083e-17 0.06 0.0181818 -1.04083e-17 0.06 0.00909091 0 0.00857143 0.2 
0 0.0171429 0.2 0 0.0257143 0.2 0 0.0342857 0.2 
4.28915e-20 0.0428571 0.2 -4.46072e-18 0.0514286 0.2 -4.46072e-18 0.0514286 0 
4.28915e-20 0.0428571 0 0 0.0342857 0 0 0.0257143 0 
0 0.0171429 0 0 0.00857143 0 0 0 0.00909091 
0 0 0.0181818 0 0 0.0272727 0 0 0.0363636 
0 0 0.0454545 0 0 0.0545455 0 0 0.0636364 
0 0 0.0727273 0 0 0.0818182 0 0 0.0909091 
0 0 0.1 0 0 0.109091 0 0 0.118182 
0 0 0.127273 0 0 0.136364 0 0 0.145455 
0 0 0.154545 0 0 0.163636 0 0 0.172727 
0 0 0.181818 0 0 0.190909 0.0514286 0 0.2 
0.0428571 0 0.2 0.0342857 0 0.2 0.0257143 0 0.2 
0.0171429 0 0.2 0.00857143 0 0.2 0.06 0 0.00909091 
0.06 0 0.0181818 0.06 0 0.0272727 0.06 0 0.0363636 
0.06 0 0.0454545 0.06 0 0.0545455 0.06 0 0.0636364 
0.06 0 0.0727273 0.06 0 0.0818182 0.06 0 0.0909091 
0.06 0 0.1 0.06 0 0.109091 0.06 0 0.118182 
0.06 0 0.127273 0.06 0 0.136364 0.06 0 0.145455 
0.06 0 0.154545 0.06 0 0.163636 0.06 0 0.172727 
0.06 0 0.181818 0.06 0 0.190909 0.00857143 0 0 
0.0171429 0 0 0.0257143 0 0 0.0342857 0 0 
0.0428571 0 0 0.0514286 0 0 0.06 0.0514286 0.2 
0.06 0.0428571 0.2 0.06 0.0342857 0.2 0.06 0.0257143 0.2 
0.06 0.0171429 0.2 0.06 0.00857143 0.2 0.06 0.00857143 0 
0.06 0.0171429 0 0.06 0.0257143 0 0.06 0.0342857 0 
0.06 0.0428571 0 0.06 0.0514286 0 0.06 0.06 0.00909091 
0.06 0.06 0.0181818 0.06 0.06 0.0272727 0.06 0.06 0.0363636 
0.06 0.06 0.0454545 0.06 0.06 0.0545455 0.06 0.06 0.0636364 
0.06 0.06 0.0727273 0.06 0.06 0.0818182 0.06 0.06 0.0909091 
0.06 0.06 0.1 0.06 0.06 0.109091 0.06 0.06 0.118182 
0.06 0.06 0.127273 0.06 0.06 0.136364 0.06 0.06 0.145455 
0.06 0.06 0.154545 0.06 0.06 0.163636 0.06 0.06 0.172727 
0.06 0.06 0.181818 0.06 0.06 0.190909 0.00857143 0.06 0.2 
0.0171429 0.06 0.2 0.0257143 0.06 0.2 0.0342857 0.06 0.2 
0.0428571 0.06 0.2 0.0514286 0.06 0.2 0.0514286 0.06 0 
0.0428571 0.06 0 0.0342857 0.06 0 0.0257143 0.06 0 
0.0171429 0.06 0 0.00857143 0.06 0 0 0.0195405 0.192229 
0 0.0299332 0.191926 0 0.0403732 0.191791 -5.35822e-18 0.052722 0.177181 
-5.21988e-18 0.0525226 0.168174 -5.12181e-18 0.0523813 0.159123 -5.08765e-18 0.0523321 0.150024 
-5.07613e-18 0.0523155 0.140923 -5.07105e-18 0.0523081 0.131823 -5.07088e-18 0.0523079 0.122728 
-5.08354e-18 0.0523262 0.113633 -5.1542e-18 0.052428 0.104554 -5.0946e-18 0.0523421 0.0954555 
-5.06742e-18 0.0523029 0.0863632 -5.05617e-18 0.0522867 0.0772692 -5.0689e-18 0.0523051 0.0681694 
-5.08304e-18 0.0523254 0.0590517 -5.07616e-18 0.0523155 0.0499284 -5.10629e-18 0.0523589 0.0407648 
-5.17765e-18 0.0524618 0.0315535 -5.2219e-18 0.0525256 0.0224071 0 0.0404425 0.00775031 
0 0.029969 0.00805226 0 0.0194886 0.00815296 0 0.00734462 0.0227763 
0 0.00756236 0.0317478 0 0.00770117 0.0408566 0 0.0076852 0.0499594 
0 0.00771577 0.059077 0 0.00771219 0.0681793 0 0.00771597 0.0772719 
0 0.00763596 0.086358 0 0.0077289 0.0954547 0 0.00775085 0.104547 
0 0.00772572 0.113634 0 0.00769983 0.122725 0 0.0076754 0.131832 
0 0.00757557 0.140943 0 0.00768565 0.150062 0 0.00767337 0.1592 
0 0.00757773 0.168389 0 0.00745083 0.177567 0 0.00620838 0.0152501 
-6.09752e-18 0.0537874 0.184744 0 0.00641256 0.185352 -5.96077e-18 0.0535904 0.0146237 
0 0.0253296 0.183945 0 0.034292 0.183748 -6.35385e-20 0.0450916 0.173053 
-2.22884e-19 0.0453212 0.183415 0 0.044897 0.163844 0 0.0447548 0.154644 
0 0.0446988 0.145505 0 0.0446898 0.136388 0 0.0446683 0.127279 
0 0.0446915 0.118177 0 0.0445784 0.10909 0 0.0446899 0.100003 
0 0.0446698 0.0909078 0 0.0446747 0.0818108 0 0.0446871 0.0727061 
0 0.044675 0.0635871 0 0.0446717 0.0544441 0 0.0447215 0.0452403 
0 0.0448795 0.0358903 -1.54874e-19 0.0452232 0.0262743 -1.94615e-19 0.0452805 0.0155498 
0 0.0345969 0.0160067 0 0.0252827 0.0161536 0 0.0144842 0.0164122 
0 0.0145892 0.0265663 0 0.0154009 0.0362137 0 0.0153566 0.0453418 
0 0.0153331 0.0544762 0 0.0153103 0.0636115 0 0.0154212 0.0727169 
0 0.0154798 0.0818166 0 0.0154182 0.0909073 0 0.0154505 0.0999954 
0 0.0154772 0.109091 0 0.0154167 0.118185 0 0.0152757 0.127281 
0 0.0153395 0.136398 0 0.0153937 0.145528 0 0.0153845 0.154702 
0 0.0151718 0.164014 0 0.0146978 0.173659 0 0.0147206 0.184346 
0 0.0371614 0.168472 0 0.0374749 0.15931 0 0.0373438 0.150138 
0 0.0372919 0.140973 0 0.0372641 0.131845 0 0.0372459 0.122735 
0 0.0370841 0.113634 0 0.0370884 0.104538 0 0.0372413 0.0954532 
0 0.0372714 0.086358 0 0.0372589 0.0772547 0 0.0372887 0.0681313 
0 0.0372517 0.0589776 0 0.0372848 0.0497551 0 0.0374566 0.0404167 
0 0.037557 0.0310645 0 0.0226296 0.0313538 0 0.022772 0.0405648 
0 0.0227688 0.049815 0 0.0227629 0.0589981 0 0.022921 0.0681539 
0 0.0228858 0.0772617 0 0.0228956 0.0863613 0 0.0229018 0.0954532 
0 0.0228897 0.104546 0 0.0228798 0.113639 0 0.0228934 0.122736 
0 0.0227707 0.131853 0 0.0228022 0.140984 0 0.0229479 0.150146 
0 0.0227591 0.159488 0 0.0223887 0.168824 0 0.0296833 0.174889 
0 0.0301424 0.0251066 0 0.0216048 0.176978 0 0.038369 0.0228541 
0 0.037699 0.176318 0 0.021642 0.0232535 0 0.0299903 0.109096 
0 0.0300123 0.0909081 0 0.0300575 0.136426 0 0.0299917 0.11819 
0 0.0300129 0.0818231 0 0.03 0.127292 0 0.0300071 0.0999986 
0 0.0300451 0.0635444 0 0.0300189 0.0726948 0 0.0301009 0.03538 
0 0.0300832 0.145604 0 0.0300013 0.0543478 0 0.0298903 0.164537 
0 0.0300634 0.045073 0 0.0300976 0.154904 -4.31365e-18 0.0512166 0.00712309 
0 0.0087855 0.192872 -4.31025e-18 0.0512117 0.19287 0 0.00878341 0.00712379 
0.0404607 0 0.192234 0.0300668 0 0.19193 0.0196268 0 0.191791 
0.00727799 0 0.177181 0.00747736 0 0.168174 0.00761869 0 0.159123 
0.00766791 0 0.150024 0.00768465 0 0.140922 0.00769206 0 0.131823 
0.00769195 0 0.122728 0.00770768 0 0.11363 0.00771686 0 0.104544 
0.0077072 0 0.0954614 0.00768683 0 0.0863586 0.00771485 0 0.077265 
0.00769845 0 0.0681641 0.00767814 0 0.0590463 0.00768962 0 0.0499236 
0.00764887 0 0.0407625 0.0075429 0 0.031554 0.00747445 0 0.0224071 
0.0195575 0 0.00775031 0.030031 0 0.00805226 0.0405114 0 0.00815296 
0.0526554 0 0.0227763 0.0524724 0 0.0317201 0.0523395 0 0.0408309 
0.0523277 0 0.0499574 0.0523437 0 0.0590696 0.0524219 0 0.0681551 
0.0523148 0 0.0772608 0.0523094 0 0.0863591 0.0522862 0 0.09546 
0.0522643 0 0.104546 0.0522845 0 0.113636 0.0523176 0 0.12272 
0.05248 0 0.131835 0.0522987 0 0.140931 0.0522867 0 0.150055 
0.0523206 0 0.159197 0.0524207 0 0.168389 0.0525492 0 0.177567 
0.0537916 0 0.0152501 0.00640962 0 0.0146237 0.00621255 0 0.184744 
0.0535874 0 0.185352 0.0346693 0 0.183961 0.025708 0 0.183748 
0.0149084 0 0.173053 0.0146788 0 0.183415 0.015103 0 0.163844 
0.0152452 0 0.154644 0.0153012 0 0.145504 0.0153107 0 0.136387 
0.0153322 0 0.127278 0.0153071 0 0.118176 0.0154185 0 0.10909 
0.0154505 0 0.100001 0.015274 0 0.0909064 0.0153242 0 0.0817999 
0.0153205 0 0.0726888 0.0153355 0 0.0635736 0.0153318 0 0.0544321 
0.015297 0 0.0452266 0.0151432 0 0.0358894 0.0147768 0 0.0262743 
0.0147195 0 0.0155498 0.0254031 0 0.0160067 0.0347173 0 0.0161536 
0.0455158 0 0.0164122 0.0454169 0 0.0265528 0.0447546 0 0.0360707 
0.0447111 0 0.0453101 0.0447549 0 0.054503 0.0445998 0 0.0635867 
0.044656 0 0.072696 0.0446748 0 0.0817992 0.0446898 0 0.0909069 
0.0445537 0 0.100002 0.0445884 0 0.10909 0.0445514 0 0.118179 
0.0447581 0 0.127271 0.0446532 0 0.136398 0.0445652 0 0.145516 
0.044586 0 0.15469 0.044829 0 0.164013 0.0453022 0 0.173659 
0.0452794 0 0.184346 0.0228386 0 0.168472 0.0225251 0 0.15931 
0.022656 0 0.150138 0.022708 0 0.140973 0.022738 0 0.131843 
0.0227549 0 0.122732 0.0229164 0 0.113632 0.0228946 0 0.104538 
0.0228958 0 0.0954463 0.0227506 0 0.0863313 0.0227358 0 0.0772184 
0.0227489 0 0.0680927 0.0227571 0 0.0589494 0.0227026 0 0.0497231 
0.0226683 0 0.0404112 0.0224423 0 0.0310618 0.0373736 0 0.0313416 
0.0372667 0 0.0405489 0.0373667 0 0.0498781 0.0371064 0 0.0589565 
0.0372671 0 0.068095 0.0372434 0 0.0772198 0.0372471 0 0.0863342 
0.0371049 0 0.0954465 0.0371107 0 0.104539 0.0371096 0 0.113636 
0.0371107 0 0.122731 0.0373311 0 0.131852 0.0370563 0 0.140957 
0.0370518 0 0.150145 0.0372396 0 0.159486 0.0376186 0 0.168818 
0.0303631 0 0.174861 0.0298576 0 0.0251066 0.022301 0 0.176318 
0.0383865 0 0.176993 0.038358 0 0.0232535 0.021631 0 0.0228541 
0.029943 0 0.136424 0.030006 0 0.109081 0.0300033 0 0.118186 
0.0299978 0 0.0817389 0.0300003 0 0.0908749 0.0300038 0 0.127286 
0.0300009 0 0.0999766 0.0298991 0 0.03538 0.0300139 0 0.0634837 
0.0299888 0 0.0726385 0.0299166 0 0.145603 0.0299806 0 0.0542972 
0.0301097 0 0.164537 0.0299782 0 0.0450058 0.0299015 0 0.154903 
0.0512145 0 0.192872 0.00878828 0 0.19287 0.0512166 0 0.00712379 
0.00878337 0 0.00712309 0.06 0.0404595 0.192229 0.06 0.0300668 0.191926 
0.06 0.0196268 0.191791 0.06 0.00727799 0.177181 0.06 0.00747736 0.168174 
0.06 0.0076187 0.159123 0.06 0.00766793 0.150024 0.06 0.00768467 0.140922 
0.06 0.00769207 0.131823 0.06 0.00769195 0.122728 0.06 0.00770768 0.11363 
0.06 0.00771686 0.104544 0.06 0.0077072 0.0954614 0.06 0.00768683 0.0863586 
0.06 0.00771485 0.077265 0.06 0.00769845 0.0681641 0.06 0.00767814 0.0590463 
0.06 0.00768962 0.0499236 0.06 0.00764887 0.0407625 0.06 0.0075429 0.031554 
0.06 0.00747445 0.0224071 0.06 0.0195575 0.00775031 0.06 0.030031 0.00805226 
0.06 0.0405114 0.00815296 0.06 0.0526554 0.0227763 0.06 0.0524724 0.0317201 
[...]
POINT_DATA 1214
SCALARS sigmax double
LOOKUP_TABLE default
-13681.6 -13681.6 -13681.6 -13681.7 -13681.6 -13681.6 -13681.6 -13681.6 -13681.6 
-13681.6 -13681.6 -13681.6 -13681.6 -13681.6 -13681.6 -13681.6 -13681.6 -13681.6 
-13681.6 -13681.6 -13681.6 -13681.6 -13681.6 -13681.6 -13681.6 -13681.6 -13681.6 
-13681.6 -13681.6 -13681.6 -13681.6 -13681.6 -13681.6 -13681.6 -13681.7 -13681.5 
-13681.6 -13681.6 -13681.6 -13681.6 -13681.6 -13681.6 -13681.6 -13681.6 -13681.6 
-13681.6 -13681.6 -13681.6 -13681.6 -13681.6 -13681.6 -13681.6 -13681.6 -13681.6 
-13681.6 -13681.6 -13681.5 -13681.6 -13681.6 -13681.6 -13681.6 -13681.6 -13681.6 
-13681.6 -13681.6 -13681.6 -13681.6 -13681.6 -13681.6 -13681.6 -13681.6 -13681.6 
-13681.5 -13681.6 -13681.6 -13681.6 -13681.6 -13681.6 -13681.6 -13681.6 -13681.6 
-13681.6 -13681.6 -13681.6 -13681.6 -13681.6 -13681.6 -13681.5 -13681.5 -13681.5 
-13681.5 -13681.6 -13681.6 -13681.6 -13681.5 -13681.6 -13681.6 -13681.6 -13681.6 
-13681.6 -13681.6 -13681.6 -13681.5 -13681.5 -13681.5 -13681.5 -13681.5 -13681.6 
-13681.6 -13681.6 -13681.6 -13681.6 -13681.6 -13681.6 -13681.6 -13681.6 -13681.6 
-13681.6 -13681.6 -13681.6 -13681.6 -13681.6 -13681.6 -13681.6 -13681.6 -13681.6 
-13681.6 -13681.6 -13681.7 -13681.6 -13681.6 -13681.6 -13681.6 -13681.6 -13681.6 
-13681.5 -13681.5 -13681.6 -13681.5 -13681.5 -13681.6 -13681.6 -13681.6 -13681.6 
-13681.6 -13681.6 -13681.6 -13681.6 -13681.6 -13681.6 -13681.6 -13681.6 -13681.6 
-13681.6 -13681.6 -13681.6 -13681.6 -13681.6 -13681.6 -13681.6 -13681.6 -13681.6 
-13681.6 -13681.6 -13681.6 -13681.6 -13681.6 -13681.6 -13681.6 -13681.6 -13681.6 
-13681.6 -13681.6 -13681.6 -13681.6 -13681.6 -13681.6 -13681.6 -13681.6 -13681.6 
-13681.6 -13681.6 -13681.6 -13681.6 -13681.6 -13681.6 -13681.6 -13681.6 -13681.6 
-13681.6 -13681.6 -13681.6 -13681.6 -13681.6 -13681.6 -13681.6 -13681.6 -13681.6 
-13681.6 -13681.6 -13681.6 -13681.6 -13681.6 -13681.6 -13681.6 -13681.6 -13681.6 
-13681.6 -13681.6 -13681.6 -13681.6 -13681.6 -13681.5 -13681.6 -13681.6 -13681.6 
-13681.6 -13681.6 -13681.6 -13681.6 -13681.6 -13681.6 -13681.6 -13681.6 -13681.6 
-13681.6 -13681.6 -13681.6 -13681.6 -13681.6 -13681.6 -13681.6 -13681.6 -13681.6 
-13681.6 -13681.6 -13681.6 -13681.6 -13681.6 -13681.6 -13681.6 -13681.6 -13681.6 
-13681.6 -13681.6 -13681.6 -13681.6 -13681.6 -13681.6 -13681.6 -13681.6 -13681.6 
-13681.6 -13681.6 -13681.6 -13681.6 -13681.6 -13681.6 -13681.6 -13681.6 -13681.6 
-13681.6 -13681.6 -13681.6 -13681.6 -13681.6 -13681.6 -13681.6 -13681.6 -13681.6 
-13681.6 -13681.6 -13681.6 -13681.6 -13681.6 -13681.6 -13681.6 -13681.6 -13681.6 
-13681.6 -13681.6 -13681.6 -13681.6 -13681.6 -13681.6 -13681.6 -13681.6 -13681.6 
-13681.6 -13681.6 -13681.6 -13681.6 -13681.5 -13681.6 -13681.6 -13681.6 -13681.6 
-13681.6 -13681.6 -13681.6 -13681.6 -13681.6 -13681.6 -13681.6 -13681.6 -13681.6 
-13681.6 -13681.6 -13681.6 -13681.5 -13681.6 -13681.6 -13681.6 -13681.6 -13681.6 
-13681.6 -13681.6 -13681.6 -13681.6 -13681.6 -13681.6 -13681.6 -13681.6 -13681.6 
-13681.6 -13681.6 -13681.6 -13681.6 -13681.6 -13681.6 -13681.6 -13681.6 -13681.6 
-13681.6 -13681.6 -13681.6 -13681.6 -13681.6 -13681.6 -13681.6 -13681.6 -13681.6 
-13681.6 -13681.6 -13681.6 -13681.6 -13681.6 -13681.6 -13681.6 -13681.6 -13681.6 
-13681.6 -13681.6 -13681.6 -13681.6 -13681.6 -13681.6 -13681.6 -13681.6 -13681.6 
-13681.6 -13681.6 -13681.6 -13681.6 -13681.6 -13681.6 -13681.6 -13681.6 -13681.6 
-13681.6 -13681.6 -13681.6 -13681.6 -13681.6 -13681.6 -13681.6 -13681.6 -13681.6 
-13681.6 -13681.6 -13681.6 -13681.6 -13681.6 -13681.6 -13681.6 -13681.6 -13681.6 
-13681.6 -13681.6 -13681.6 -13681.6 -13681.6 -13681.6 -13681.6 -13681.6 -13681.6 
-13681.6 -13681.6 -13681.6 -13681.6 -13681.6 -13681.6 -13681.6 -13681.6 -13681.6 
-13681.6 -13681.6 -13681.6 -13681.6 -13681.6 -13681.6 -13681.6 -13681.6 -13681.6 
-13681.6 -13681.6 -13681.6 -13681.6 -13681.6 -13681.6 -13681.6 -13681.6 -13681.6 
-13681.6 -13681.6 -13681.6 -13681.6 -13681.6 -13681.6 -13681.5 -13681.6 -13681.6 
-13681.6 -13681.6 -13681.6 -13681.6 -13681.6 -13681.6 -13681.6 -13681.6 -13681.6 
-13681.6 -13681.6 -13681.6 -13681.6 -13681.6 -13681.6 -13681.6 -13681.5 -13681.6 
-13681.5 -13681.6 -13681.6 -13681.5 -13681.6 -13681.6 -13681.6 -13681.6 -13681.6 
-13681.6 -13681.6 -13681.6 -13681.6 -13681.6 -13681.6 -13681.6 -13681.6 -13681.6 
-13681.6 -13681.6 -13681.6 -13681.6 -13681.6 -13681.6 -13681.6 -13681.5 -13681.6 
-13681.6 -13681.6 -13681.6 -13681.6 -13681.6 -13681.6 -13681.6 -13681.6 -13681.6 
-13681.6 -13681.6 -13681.6 -13681.6 -13681.6 -13681.6 -13681.6 -13681.6 -13681.6 
-13681.6 -13681.6 -13681.6 -13681.6 -13681.6 -13681.6 -13681.6 -13681.6 -13681.6 
-13681.6 -13681.6 -13681.6 -13681.6 -13681.6 -13681.6 -13681.6 -13681.6 -13681.6 
-13681.6 -13681.6 -13681.6 -13681.6 -13681.6 -13681.6 -13681.6 -13681.6 -13681.6 
-13681.6 -13681.6 -13681.6 -13681.6 -13681.6 -13681.6 -13681.6 -13681.6 -13681.6 
-13681.6 -13681.6 -13681.6 -13681.6 -13681.6 -13681.6 -13681.6 -13681.6 -13681.6 
-13681.6 -13681.6 -13681.6 -13681.6 -13681.6 -13681.6 -13681.6 -13681.6 -13681.6 
-13681.6 -13681.6 -13681.6 -13681.6 -13681.6 -13681.6 -13681.6 -13681.6 -13681.6 
-13681.6 -13681.6 -13681.6 -13681.6 -13681.6 -13681.6 -13681.6 -13681.6 -13681.6 
-13681.6 -13681.6 -13681.6 -13681.6 -13681.6 -13681.6 -13681.5 -13681.6 -13681.6 
-13681.6 -13681.6 -13681.6 -13681.6 -13681.6 -13681.6 -13681.6 -13681.6 -13681.6 
-13681.6 -13681.6 -13681.6 -13681.6 -13681.6 -13681.6 -13681.6 -13681.6 -13681.6 
-13681.6 -13681.6 -13681.6 -13681.6 -13681.6 -13681.6 -13681.6 -13681.6 -13681.6 
-13681.6 -13681.6 -13681.6 -13681.6 -13681.6 -13681.6 -13681.6 -13681.6 -13681.6 
-13681.6 -13681.6 -13681.6 -13681.6 -13681.6 -13681.6 -13681.6 -13681.6 -13681.6 
-13681.6 -13681.6 -13681.6 -13681.6 -13681.6 -13681.6 -13681.6 -13681.6 -13681.6 
-13681.6 -13681.6 -13681.6 -13681.6 -13681.6 -13681.6 -13681.6 -13681.6 -13681.6 
-13681.6 -13681.6 -13681.6 -13681.6 -13681.6 -13681.6 -13681.6 -13681.6 -13681.6 
-13681.6 -13681.6 -13681.6 -13681.6 -13681.6 -13681.6 -13681.6 -13681.6 -13681.6 
-13681.7 -13681.6 -13681.6 -13681.6 -13681.6 -13681.6 -13681.6 -13681.6 -13681.6 
-13681.6 -13681.6 -13681.6 -13681.6 -13681.6 -13681.6 -13681.6 -13681.6 -13681.6 
-13681.6 -13681.6 -13681.6 -13681.6 -13681.6 -13681.6 -13681.6 -13681.6 -13681.6 
-13681.6 -13681.6 -13681.6 -13681.6 -13681.6 -13681.6 -13681.6 -13681.7 -13681.6 
-13681.5 -13681.5 -13681.6 -13681.6 -13681.6 -13681.6 -13681.6 -13681.6 -13681.6 
-13681.6 -13681.6 -13681.6 -13681.6 -13681.6 -13681.6 -13681.6 -13681.6 -13681.6 
-13681.6 -13681.6 -13681.5 -13681.6 -13681.6 -13681.6 -13681.6 -13681.6 -13681.6 
-13681.6 -13681.6 -13681.6 -13681.6 -13681.6 -13681.6 -13681.6 -13681.6 -13681.6 
-13681.6 -13681.6 -13681.6 -13681.6 -13681.6 -13681.6 -13681.6 -13681.6 -13681.6 
-13681.6 -13681.6 -13681.6 -13681.6 -13681.6 -13681.6 -13681.6 -13681.6 -13681.6 
-13681.6 -13681.6 -13681.6 -13681.6 -13681.6 -13681.6 -13681.6 -13681.6 -13681.6 
-13681.6 -13681.6 -13681.6 -13681.6 -13681.6 -13681.6 -13681.6 -13681.6 -13681.6 
-13681.6 -13681.6 -13681.6 -13681.6 -13681.6 -13681.6 -13681.6 -13681.6 -13681.6 
-13681.5 -13681.6 -13681.6 -13681.6 -13681.6 -13681.6 -13681.6 -13681.6 -13681.6 
-13681.6 -13681.6 -13681.6 -13681.6 -13681.5 -13681.5 -13681.6 -13681.5 -13681.6 
-13681.5 -13681.6 -13681.6 -13681.6 -13681.6 -13681.5 -13681.6 -13681.6 -13681.6 
-13681.6 -13681.6 -13681.6 -13681.6 -13681.6 -13681.6 -13681.6 -13681.6 -13681.6 
-13681.6 -13681.6 -13681.6 -13681.6 -13681.6 -13681.6 -13681.6 -13681.6 -13681.6 
-13681.6 -13681.6 -13681.6 -13681.6 -13681.6 -13681.6 -13681.6 -13681.6 -13681.6 
-13681.6 -13681.6 -13681.6 -13681.6 -13681.6 -13681.6 -13681.6 -13681.6 -13681.6 
-13681.6 -13681.6 -13681.6 -13681.6 -13681.6 -13681.6 -13681.6 -13681.6 -13681.6 
-13681.6 -13681.6 -13681.6 -13681.6 -13681.6 -13681.6 -13681.6 -13681.6 -13681.6 
-13681.6 -13681.6 -13681.6 -13681.6 -13681.6 -13681.6 -13681.6 -13681.6 -13681.6 
-13681.6 -13681.6 -13681.6 -13681.6 -13681.6 -13681.6 -13681.6 -13681.6 -13681.6 
-13681.6 -13681.6 -13681.6 -13681.6 -13681.6 -13681.6 -13681.6 -13681.6 -13681.6 
-13681.6 -13681.6 -13681.6 -13681.6 -13681.6 -13681.6 -13681.6 -13681.6 -13681.6 
-13681.6 -13681.6 -13681.6 -13681.6 -13681.6 -13681.6 -13681.6 -13681.6 -13681.6 
-13681.6 -13681.6 -13681.6 -13681.6 -13681.6 -13681.6 -13681.6 -13681.6 -13681.6 
-13681.6 -13681.6 -13681.6 -13681.6 -13681.6 -13681.6 -13681.6 -13681.6 -13681.6 
-13681.6 -13681.6 -13681.6 -13681.6 -13681.6 -13681.6 -13681.6 -13681.6 -13681.6 
-13681.6 -13681.6 -13681.6 -13681.6 -13681.6 -13681.6 -13681.6 -13681.6 -13681.6 
-13681.6 -13681.6 -13681.6 -13681.6 -13681.6 -13681.6 -13681.6 -13681.6 -13681.6 
-13681.6 -13681.6 -13681.6 -13681.6 -13681.6 -13681.6 -13681.6 -13681.6 -13681.6 
-13681.6 -13681.6 -13681.6 -13681.6 -13681.6 -13681.6 -13681.6 -13681.6 -13681.6 
-13681.6 -13681.6 -13681.6 -13681.6 -13681.6 -13681.6 -13681.6 -13681.6 -13681.6 
-13681.6 -13681.6 -13681.6 -13681.6 -13681.6 -13681.6 -13681.6 -13681.6 -13681.6 
-13681.6 -13681.6 -13681.6 -13681.6 -13681.6 -13681.6 -13681.6 -13681.6 -13681.6 
-13681.6 -13681.6 -13681.6 -13681.6 -13681.6 -13681.6 -13681.6 -13681.6 -13681.6 
-13681.6 -13681.6 -13681.6 -13681.6 -13681.6 -13681.6 -13681.6 -13681.6 -13681.6 
-13681.6 -13681.6 -13681.6 -13681.6 -13681.6 -13681.6 -13681.6 -13681.6 -13681.6 
-13681.6 -13681.6 -13681.6 -13681.6 -13681.6 -13681.6 -13681.6 -13681.6 -13681.6 
-13681.6 -13681.6 -13681.6 -13681.6 -13681.6 -13681.6 -13681.6 -13681.6 -13681.6 
-13681.6 -13681.6 -13681.6 -13681.6 -13681.6 -13681.6 -13681.6 -13681.6 -13681.6 
-13681.6 -13681.6 -13681.6 -13681.6 -13681.6 -13681.6 -13681.6 -13681.6 -13681.6 
-13681.6 -13681.6 -13681.6 -13681.6 -13681.6 -13681.6 -13681.6 -13681.6 -13681.6 
-13681.6 -13681.6 -13681.6 -13681.6 -13681.6 -13681.6 -13681.6 -13681.6 -13681.6 
-13681.6 -13681.6 -13681.6 -13681.6 -13681.6 -13681.6 -13681.6 -13681.6 -13681.6 
-13681.6 -13681.6 -13681.6 -13681.6 -13681.6 -13681.6 -13681.6 -13681.6 -13681.6 
-13681.6 -13681.6 -13681.6 -13681.6 -13681.6 -13681.6 -13681.6 -13681.6 -13681.6 
-13681.6 -13681.6 -13681.6 -13681.6 -13681.6 -13681.6 -13681.6 -13681.6 -13681.6 
-13681.6 -13681.6 -13681.6 -13681.6 -13681.6 -13681.6 -13681.6 -13681.6 -13681.6 
-13681.6 -13681.6 -13681.6 -13681.6 -13681.6 -13681.6 -13681.6 -13681.6 -13681.6 
-13681.6 -13681.6 -13681.6 -13681.6 -13681.6 -13681.6 -13681.6 -13681.6 -13681.6 
-13681.6 -13681.6 -13681.6 -13681.6 -13681.6 -13681.6 -13681.6 -13681.6 -13681.6 
-13681.6 -13681.6 -13681.6 -13681.6 -13681.6 -13681.6 -13681.6 -13681.6 -13681.6 
-13681.6 -13681.6 -13681.6 -13681.6 -13681.6 -13681.6 -13681.6 -13681.6 -13681.6 
-13681.6 -13681.6 -13681.6 -13681.6 -13681.6 -13681.6 -13681.6 -13681.6 -13681.6 
-13681.6 -13681.6 -13681.6 -13681.6 -13681.6 -13681.6 -13681.6 -13681.6 -13681.6 
-13681.6 -13681.6 -13681.6 -13681.6 -13681.6 -13681.6 -13681.6 -13681.6 -13681.6 
-13681.6 -13681.6 -13681.6 -13681.6 -13681.6 -13681.6 -13681.6 -13681.6 -13681.6 
-13681.6 -13681.6 -13681.6 -13681.6 -13681.6 -13681.6 -13681.6 -13681.6 -13681.6 
-13681.6 -13681.6 -13681.6 -13681.6 -13681.6 -13681.6 -13681.6 -13681.6 
METADATA
INFORMATION 0

VECTORS u_v_w double
0 0 0 0 0 0 1.72083e-15 -2.59166e-15 -5.35655e-08 
3.56255e-15 3.33647e-15 -5.35655e-08 -1.03718e-15 3.0407e-15 -5.35655e-08 0 0 0 
-7.43258e-16 4.14187e-15 -5.35655e-08 0 0 0 3.49894e-15 3.64688e-15 -5.11307e-08 
3.43534e-15 3.95728e-15 -4.86959e-08 3.37173e-15 4.26769e-15 -4.62611e-08 -3.62007e-16 3.62179e-17 -4.38262e-08 
-1.01742e-15 -6.83502e-16 -4.13914e-08 -1.67277e-15 -1.40314e-15 -3.89569e-08 -2.32819e-15 -2.12286e-15 -3.6522e-08 
-2.9836e-15 -2.84258e-15 -3.40872e-08 -1.72823e-15 2.32044e-16 -3.16524e-08 -4.25207e-16 -1.73335e-15 -2.92176e-08 
8.77817e-16 -3.69874e-15 -2.67828e-08 -3.91956e-15 -5.52903e-15 -2.4348e-08 -3.13818e-15 -4.79945e-15 -2.19132e-08 
-2.35679e-15 -4.06987e-15 -1.94784e-08 -1.57541e-15 -3.34029e-15 -1.70436e-08 -7.94023e-16 -2.61071e-15 -1.46088e-08 
-1.26304e-17 -1.88112e-15 -1.2174e-08 7.68754e-16 -1.15154e-15 -9.7392e-09 -2.40626e-15 -2.7589e-15 -7.3044e-09 
-2.22159e-15 -2.69632e-15 -4.8696e-09 -2.03692e-15 -2.63374e-15 -2.4348e-09 1.30187e-15 1.5274e-15 -5.35655e-08 
8.8291e-16 7.36455e-15 -5.35655e-08 4.63952e-16 8.29117e-15 -5.35655e-08 4.49935e-17 5.56459e-15 -5.35655e-08 
3.39494e-16 2.02424e-15 -5.35655e-08 1.95103e-15 4.22601e-15 -5.35655e-08 -1.06127e-15 -1.44692e-15 -9.89719e-15 
-2.70277e-16 -3.74398e-15 -9.9562e-15 4.09913e-15 -4.36406e-15 -5.24132e-15 4.41357e-15 -7.73805e-17 -7.37021e-15 
4.72801e-15 3.74199e-15 -9.4991e-15 5.04246e-15 7.43984e-15 -1.1628e-14 3.91671e-15 -2.56162e-15 -2.4348e-09 
3.10679e-15 -2.27901e-15 -4.86959e-09 2.29687e-15 -1.9964e-15 -7.30438e-09 1.48695e-15 -1.71379e-15 -9.73917e-09 
6.77029e-16 -1.43118e-15 -1.2174e-08 7.69915e-16 -7.73607e-16 -1.46088e-08 1.96943e-15 -2.18803e-15 -1.70436e-08 
3.16894e-15 -3.60245e-15 -1.94784e-08 4.36845e-15 -5.01687e-15 -2.19132e-08 2.60134e-15 2.11517e-15 -2.4348e-08 
1.60072e-15 6.57006e-16 -2.67828e-08 6.00096e-16 -8.01177e-16 -2.92176e-08 -4.0053e-16 -2.25936e-15 -3.16524e-08 
-1.40116e-15 -3.71754e-15 -3.40872e-08 -2.40178e-15 -5.17573e-15 -3.6522e-08 -3.40241e-15 -6.63391e-15 -3.89569e-08 
2.85166e-15 -1.92943e-15 -4.13914e-08 2.90158e-15 -3.01239e-15 -4.38262e-08 2.95151e-15 -4.09535e-15 -4.6261e-08 
2.52593e-15 -4.29931e-15 -4.86959e-08 2.12338e-15 -3.44549e-15 -5.11307e-08 -2.33259e-15 3.41578e-15 -5.35655e-08 
-7.60708e-16 3.79086e-15 -5.35655e-08 -3.14675e-16 4.16594e-15 -5.35655e-08 -4.27797e-15 4.54102e-15 -5.35655e-08 
-2.85474e-15 -1.75374e-15 -5.35655e-08 -2.30398e-15 -2.1727e-15 -5.35655e-08 1.08693e-17 -1.58639e-15 -2.4348e-09 
1.92354e-15 -9.74408e-16 -4.86958e-09 3.83621e-15 -3.62422e-16 -7.30437e-09 5.74888e-15 2.49565e-16 -9.73917e-09 
7.66154e-15 8.61551e-16 -1.2174e-08 1.2208e-16 1.10823e-15 -1.46088e-08 3.39579e-16 3.89347e-16 -1.70436e-08 
5.57079e-16 -3.29532e-16 -1.94784e-08 7.74578e-16 -1.04841e-15 -2.19132e-08 -1.8145e-15 -2.39298e-15 -2.4348e-08 
-1.15405e-15 -2.59126e-15 -2.67827e-08 -4.93584e-16 -2.78954e-15 -2.92176e-08 1.6688e-16 -2.98782e-15 -3.16524e-08 
8.27343e-16 -3.1861e-15 -3.40872e-08 7.10297e-16 -1.58357e-15 -3.6522e-08 1.12448e-15 -2.19564e-15 -3.89568e-08 
1.53862e-15 -2.80763e-15 -4.13914e-08 -1.41578e-15 3.46578e-16 -4.38262e-08 2.19245e-16 1.8903e-15 -4.6261e-08 
4.51664e-15 -2.45893e-15 -4.86958e-08 1.73973e-15 2.90882e-16 -5.11307e-08 4.02666e-15 -1.31584e-15 -1.12252e-14 
2.03382e-15 2.12572e-16 -1.04615e-14 4.68701e-16 1.93884e-15 -4.51194e-15 7.01777e-16 1.49787e-15 -5.57546e-15 
-3.41249e-15 -2.59527e-15 -1.23535e-15 -2.39074e-15 -2.39682e-15 -3.03875e-15 -5.4072e-16 2.8544e-15 -5.35655e-08 
-3.3818e-16 1.65682e-15 -5.35655e-08 -1.35643e-16 9.60398e-15 -5.35655e-08 6.68948e-17 1.26147e-14 -5.35655e-08 
-2.8702e-16 1.04664e-14 -5.35655e-08 -6.62102e-16 3.46351e-15 -5.35655e-08 -2.10024e-15 -6.17771e-15 -5.41913e-15 
-2.29869e-15 -5.91732e-15 -5.99615e-15 3.32392e-15 -7.99652e-15 -2.63322e-15 4.05316e-15 -6.5238e-15 -3.16025e-15 
4.7824e-15 -1.38552e-15 -3.68729e-15 5.51165e-15 2.43775e-15 -4.21434e-15 -1.86941e-15 1.34982e-15 -2.43479e-09 
-1.83761e-15 2.83043e-15 -4.86959e-09 -1.80581e-15 4.31104e-15 -7.30438e-09 -6.66257e-16 3.98319e-15 -9.73917e-09 
-6.60863e-16 1.92145e-15 -1.2174e-08 -6.5547e-16 -1.40313e-16 -1.46088e-08 -6.50076e-16 -2.20205e-15 -1.70436e-08 
-6.44682e-16 -4.26379e-15 -1.94784e-08 2.34154e-16 -7.81947e-16 -2.19132e-08 -2.96836e-17 -1.01228e-15 -2.43479e-08 
-2.93521e-16 -1.24261e-15 -2.67827e-08 -5.57362e-16 -1.47295e-15 -2.92175e-08 -3.5608e-16 -3.39162e-15 -3.16523e-08 
-1.0734e-15 -2.2641e-15 -3.40872e-08 -1.79072e-15 -1.13658e-15 -3.6522e-08 -2.50804e-15 -9.06501e-18 -3.89569e-08 
-3.22528e-15 1.11833e-15 -4.13914e-08 -3.9426e-15 2.24585e-15 -4.38262e-08 -1.23565e-15 3.78148e-15 -4.62611e-08 
-1.07152e-15 3.90161e-15 -4.86959e-08 -9.07387e-16 4.02174e-15 -5.11307e-08 -5.47138e-15 1.72495e-15 -5.35655e-08 
-9.24989e-15 1.13418e-16 -5.35655e-08 -4.15337e-15 -2.52881e-15 -5.35655e-08 -3.12525e-15 -2.53556e-15 -5.35655e-08 
4.07152e-16 3.73679e-15 -5.35655e-08 1.87723e-15 3.93933e-15 -5.35655e-08 4.6941e-15 -7.60594e-16 -6.4868e-15 
4.66501e-15 -1.39041e-15 -6.45682e-15 2.52057e-15 3.07139e-15 -4.38623e-15 1.08874e-15 -2.92171e-16 -4.18691e-15 
-1.85979e-16 -9.89193e-16 -9.48995e-15 -3.63371e-15 -1.78018e-15 -9.66407e-15 1.10982e-15 2.81856e-15 -5.14842e-08 
6.15253e-16 4.81728e-15 -5.14031e-08 1.10938e-16 4.74625e-15 -5.13669e-08 2.03455e-15 -2.60689e-16 -4.7454e-08 
1.93404e-15 -1.32559e-16 -4.50416e-08 -3.03316e-16 -5.8895e-16 -4.26175e-08 -9.56829e-16 -3.80777e-15 -4.01806e-08 
-1.61213e-15 -4.14558e-15 -3.77431e-08 -2.26782e-15 -5.5894e-16 -3.53058e-08 -2.0934e-15 -1.42313e-15 -3.28699e-08 
-7.9048e-16 -1.18214e-15 -3.0434e-08 5.07034e-16 -8.10283e-17 -2.80024e-08 1.81433e-15 2.52985e-15 -2.55656e-08 
-2.84236e-15 2.53745e-15 -2.31304e-08 -2.05926e-15 -1.93305e-15 -2.06948e-08 -1.27876e-15 -2.79802e-15 -1.82576e-08 
-4.96879e-16 1.31435e-15 -1.58157e-08 2.88172e-16 1.89992e-15 -1.33722e-08 1.07193e-15 -3.62044e-15 -1.0918e-08 
-1.79759e-15 -2.89989e-15 -8.45092e-09 -1.61767e-15 -1.68943e-15 -6.00125e-09 2.74692e-15 -1.01509e-15 -2.07575e-09 
3.08726e-15 7.07134e-18 -2.15662e-09 3.4571e-15 1.06461e-15 -2.18359e-09 1.38782e-15 -1.23992e-15 -6.10012e-09 
5.49708e-16 -5.18437e-15 -8.50293e-09 -2.86559e-16 9.86541e-16 -1.09425e-08 -7.80157e-16 4.42299e-16 -1.33805e-08 
4.19119e-16 -1.58892e-16 -1.58224e-08 1.62058e-15 -3.93736e-16 -1.82603e-08 2.81985e-15 -5.00584e-16 -2.06955e-08 
2.84911e-15 -4.21985e-16 -2.3129e-08 1.84477e-15 3.09847e-15 -2.55654e-08 8.43274e-16 4.1563e-15 -2.80006e-08 
-1.56078e-16 -5.02775e-15 -3.04343e-08 -1.15585e-15 -1.54846e-15 -3.28691e-08 -2.15742e-15 4.90674e-15 -3.53082e-08 
-3.15694e-15 -8.66095e-17 -3.77484e-08 2.10494e-15 -1.65584e-15 -4.01907e-08 2.15627e-15 1.44648e-15 -4.26381e-08 
2.21571e-15 1.45978e-15 -4.50992e-08 2.34998e-15 1.47577e-15 -4.75573e-08 2.26094e-15 -1.54702e-15 -4.0844e-09 
2.28777e-15 4.64449e-15 -4.94795e-08 2.05601e-15 -3.51782e-16 -4.96424e-08 -1.55782e-15 -4.48307e-15 -3.91664e-09 
1.19367e-15 -1.93204e-15 -4.92655e-08 7.64322e-16 1.91679e-15 -4.92128e-08 5.7107e-16 2.18012e-15 -4.63484e-08 
6.86735e-16 4.59636e-15 -4.91236e-08 4.14327e-16 -3.02502e-15 -4.38819e-08 -2.4178e-16 -2.7091e-15 -4.14179e-08 
-8.97834e-16 -7.59947e-15 -3.89702e-08 -1.55467e-15 -9.96192e-16 -3.65285e-08 -2.46123e-15 -2.93949e-15 -3.40888e-08 
-1.1575e-15 -4.2194e-15 -3.16511e-08 1.49168e-16 -2.5464e-15 -2.92173e-08 1.44747e-15 3.48433e-15 -2.67836e-08 
-2.55222e-15 4.74305e-15 -2.43476e-08 -1.77075e-15 2.30279e-15 -2.19112e-08 -9.89282e-16 -1.55136e-15 -1.94727e-08 
-2.04404e-16 -1.20525e-15 -1.70304e-08 5.81752e-16 5.88221e-16 -1.45816e-08 -5.52775e-16 -1.77805e-15 -1.21166e-08 
-9.21147e-17 -2.46417e-15 -9.61243e-09 -1.02236e-15 -4.62602e-15 -7.03699e-09 -8.09788e-16 -3.62266e-15 -4.16467e-09 
1.66827e-16 -4.56032e-15 -4.28704e-09 2.08182e-15 -3.17912e-15 -4.32638e-09 2.44038e-15 -1.47305e-15 -4.39564e-09 
9.60845e-16 -6.0761e-15 -7.11519e-09 5.0301e-17 -1.40652e-15 -9.69902e-09 -2.33269e-15 1.03683e-15 -1.21438e-08 
-1.12455e-15 2.45239e-15 -1.45902e-08 8.36263e-17 -1.8533e-15 -1.70369e-08 1.27142e-15 -9.03065e-16 -1.94756e-08 
2.46488e-15 7.66075e-16 -2.19127e-08 2.09036e-15 3.70347e-15 -2.43475e-08 1.08899e-15 1.97386e-15 -2.67815e-08 
8.69696e-17 -2.94883e-15 -2.92176e-08 -9.11981e-16 -4.10698e-15 -3.16532e-08 -1.90848e-15 -7.32012e-16 -3.40894e-08 
-2.95401e-15 1.25879e-15 -3.65311e-08 -3.90618e-15 -6.44696e-16 -3.89764e-08 1.40707e-15 -2.36388e-15 -4.14335e-08 
1.47818e-15 3.0734e-15 -4.39275e-08 2.1688e-15 2.92078e-15 -4.65107e-08 1.69447e-15 -2.00303e-15 -4.93729e-08 
1.13793e-15 -8.02934e-16 -4.51214e-08 4.61594e-16 -4.72419e-15 -4.26676e-08 -1.93053e-16 -2.98959e-15 -4.02111e-08 
-8.51189e-16 -1.15498e-15 -3.77565e-08 -2.83998e-15 -3.11896e-15 -3.53117e-08 -1.53356e-15 -4.14135e-15 -3.28718e-08 