# vtk DataFile Version 2.0
square41, Created by Gmsh 4.11.0 
ASCII
DATASET UNSTRUCTURED_GRID
POINTS 12 double
0 0 0
1 0 0
1 1 0
0 1 0
0.5 0 0
1 0.5 0
0.5 1 0
0 0.5 0
0.25 0.25 0
0.625 0.3750000000000001 0
0.71875 0.7187500000000001 0
0.345703125 0.654296875 0

CELLS 22 80
2 0 4
2 4 1
2 1 5
2 5 2
2 2 6
2 6 3
2 3 7
2 7 0
3 1 9 4
3 5 9 1
3 3 11 6
3 7 11 3
3 2 10 5
3 6 10 2
3 4 8 0
3 0 8 7
3 9 11 8
3 8 11 7
3 4 9 8
3 10 11 9
3 6 11 10
3 5 10 9

CELL_TYPES 22
3
3
3
3
3
3
3
3
5
5
5
5
5
5
5
5
5
5
5
5
5
5

CELL_DATA 22
SCALARS CellEntityIds int 1
LOOKUP_TABLE default
3
3
2
2
4
4
1
1
5
5
5
5
5
5
5
5
5
5
5
5
5
5
